18
Ord_Energy   -44.8303146
O    25.6768417       6.82043839       27.1469250
H    24.8307667       7.27423286       27.0329189
H    25.5237999       5.91326475       26.8467922
O    26.8772068       7.16800737       24.7273865
H    27.8230114       7.27003527       24.7856064
H    26.5449162       7.13626385       25.6428375
O    25.3730240       4.58792734       25.4266357
H    26.0087318       5.11883545       24.9375496
H    24.5140171       4.81660557       25.0465946
O    23.0103512       5.72169685       24.2626209
H    23.4849319       6.47030497       23.8659706
H    22.3374310       5.46329021       23.6375275
O    23.2469254       7.92194986       26.1700897
H    22.8975334       7.09024525       25.8284416
H    23.6327000       8.33643246       25.3911209
O    24.5493736       7.93720341       23.4784412
H    24.7101440       8.56867886       22.7823772
H    25.4176865       7.70499897       23.8490391
