18
Ord_Energy   -42.9796715
O    20.2479973       12.0396729       16.1208076
H    20.9980621       11.5079651       15.8172665
H    19.9140091       12.4553232       15.3140535
O    22.7288208       12.5938988       17.3525391
H    21.7888870       12.6548405       17.1248360
H    23.0601559       13.4888420       17.3216591
O    19.8170433       12.8827791       13.5215921
H    19.2259350       12.8843412       12.7731981
H    20.5856552       12.3523436       13.2532854
O    22.5808430       10.3893070       15.6212893
H    21.9843731       9.79638386       16.0998573
H    22.8933105       11.0485468       16.2577782
O    20.3411274       9.34734249       16.9617252
H    20.0175095       10.2528458       16.8421192
H    19.5941200       8.78006649       16.7837086
O    22.0427113       11.2718143       13.0441132
H    22.7698803       11.1370239       12.4415932
H    22.3242340       10.8863659       13.8890619
