18
Ord_Energy   -42.8795433
O   -20.5219460      -22.9504509       5.02486086
H   -19.5955791      -23.1490555       5.13368034
H   -20.9000473      -23.6880760       4.51701784
O   -24.2390499      -20.6065006       3.80461073
H   -25.1654148      -20.4078960       3.69579148
H   -23.8609486      -19.8688755       4.31245375
O   -21.7585182      -24.6845093       3.27863574
H   -22.0080433      -23.8410473       2.86315799
H   -22.4437485      -25.3067570       3.05086684
O   -23.0024776      -18.8724422       5.55083609
H   -22.3172455      -18.2501945       5.77860403
H   -22.7529507      -19.7159042       5.96631336
O   -22.6428108      -21.5222855       6.19640446
H   -21.8737011      -22.0324039       5.90770292
H   -23.3049698      -21.6449127       5.50842381
O   -22.1181831      -22.0346661       2.63306737
H   -22.8872929      -21.5245476       2.92176890
H   -21.4560242      -21.9120388       3.32104778
