18
Ord_Energy   -42.0240440
O   -35.5649261      -28.4612236       1.46441293
H   -34.7113152      -28.5586109       1.01579010
H   -36.2300339      -28.6848106      0.817739427
O   -34.5558167      -26.4665756       3.11896992
H   -33.6455040      -26.7974281       3.19199967
H   -35.0467949      -27.1275539       2.60431123
O   -32.1270523      -27.8751316       3.21336031
H   -32.2979774      -28.2534657       2.34358501
H   -32.6360168      -28.3938179       3.85179400
O   -32.9595375      -28.2703800      0.411226302
H   -32.3962021      -28.4972343     -0.323798358
H   -33.0459938      -27.3010139      0.409094185
O   -34.1427841      -28.5775604       5.10223055
H   -34.5477028      -27.8388252       4.62843561
H   -34.1387787      -28.3169041       6.02172899
O   -33.4225044      -25.5599976      0.704660296
H   -32.9049072      -24.7648525      0.809715390
H   -33.9110947      -25.6686668       1.53532159
