18
Ord_Energy   -45.2231941
O    16.5788174       6.80571175       26.9909496
H    17.2633724       7.49755335       26.9744530
H    15.7620325       7.23564529       27.2301693
O    18.3465576       4.76714468       27.8336449
H    17.9069138       4.09308815       28.3475151
H    17.6679764       5.42535019       27.6227779
O    18.6439457       8.59309673       26.8172817
H    19.0683422       8.32799053       25.9852390
H    19.3534260       8.79640484       27.4224606
O    19.6236629       7.57887840       24.4348717
H    19.9786930       7.82342720       23.5844288
H    18.8077545       7.07804394       24.2580280
O    19.6449318       4.62878895       25.3408718
H    20.0460091       5.49462032       25.2263546
H    19.3108540       4.61232805       26.2503166
O    17.4052238       5.96481514       24.3182392
H    16.9381313       6.18718863       25.1317310
H    18.0429192       5.27802324       24.5668907
