18
Ord_Energy   -44.6715431
O    26.0619183       3.91991425       25.8486557
H    26.0081787       2.96911573       25.8243752
H    25.1473656       4.24630642       25.7803688
O    24.0257015       7.40294790       24.1762619
H    24.1374550       7.70889091       25.0842152
H    24.9191971       7.39646673       23.8073025
O    27.1987839       6.33935404       26.2708740
H    28.0294762       6.25996065       26.7323418
H    26.8605957       5.43471336       26.1405125
O    26.7938213       7.20746231       23.5701637
H    27.0197639       6.93270159       24.4698696
H    27.1838417       6.55135918       22.9953213
O    24.7445984       7.57373095       27.0415535
H    25.6249180       7.22375631       26.8379459
H    24.8759480       8.27773666       27.6722050
O    23.6322136       5.15471268       25.7683449
H    23.7248306       5.75947237       26.5119476
H    23.6404953       5.74721146       25.0013676
