18
Ord_Energy   -45.0561256
O    23.2367268       5.64262342       23.2591114
H    22.8817940       5.27183104       22.4535313
H    24.1559067       5.34116697       23.3051701
O    25.8533764       4.68560219       23.8329792
H    25.5369205       3.89784288       24.3144627
H    26.6281757       4.42001486       23.3458786
O    24.8644199       2.73868275       25.4204807
H    25.4132671       2.79475141       26.2145386
H    24.0628834       3.24264216       25.6262779
O    25.6614628       6.01220942       26.3353386
H    25.7877178       6.95619345       26.2742691
H    25.7822609       5.66100550       25.4392338
O    22.9854088       4.76356173       25.9441795
H    22.8572311       5.10171080       25.0466976
H    23.7171860       5.28042030       26.2979317
O    26.3677788       3.59188128       27.6564312
H    26.1843338       4.48843718       27.3387775
H    26.1432514       3.59457564       28.5848179
