18
Ord_Energy   -43.5087128
O    24.6038570       6.51218653       25.0979729
H    24.3930969       6.38356304       26.0344162
H    25.1375275       7.31293964       25.0554104
O    26.7615891       8.23958015       23.7382908
H    26.8065491       9.11900234       23.3723927
H    26.2561913       7.70693541       23.1021557
O    25.0507355       6.53460073       22.3700962
H    24.7064533       6.36197758       23.2622185
H    25.0325966       5.69664383       21.9143066
O    27.4597054       6.18541145       25.5498409
H    27.5172710       6.94473171       24.9550972
H    26.5675621       5.85059547       25.4030247
O    27.1155014       6.39901447       28.2805309
H    27.8440132       6.02645683       28.7702217
H    27.3718109       6.35054445       27.3443832
O    24.3915253       6.23618174       27.8293743
H    25.3227940       6.29564667       28.0993099
H    23.8768520       6.37677336       28.6194077
