18
Ord_Energy   -42.1042900
O    20.0079861       12.1096811       14.7727404
H    19.6280270       12.7987585       15.3123693
H    19.2537231       11.6364346       14.3885450
O    18.1923409       10.2425938       13.5821323
H    18.5274048       10.0487156       12.6957445
H    17.7917957       9.42745209       13.9193821
O    20.1334190       6.98489904       15.2114820
H    20.7097034       6.60671568       15.8709612
H    20.5626411       7.80561829       14.9219065
O    19.9102650       9.42097282       11.4906025
H    19.9638386       8.54871750       11.1035624
H    20.5286674       9.41156864       12.2343283
O    17.5258198       7.75167704       14.5961533
H    18.3804054       7.37176895       14.8550043
H    16.8619976       7.13046789       14.8839207
O    20.8476601       9.47775364       14.2108793
H    21.0479412       10.3675737       14.5229378
H    19.8899593       9.53045464       14.0639153
