18
Ord_Energy   -42.5644112
O    11.9143715      -21.3281517      -14.2585163
H    11.0594120      -21.7225018      -14.4074125
H    12.0265541      -20.6234837      -14.9223728
O    12.5573664      -19.3095074      -15.9489613
H    13.4111099      -19.2100487      -15.4922104
H    12.5456209      -18.6553783      -16.6413326
O    14.8058300      -19.3940258      -14.3834133
H    14.3895988      -19.3237228      -13.5144548
H    15.0218039      -20.3309956      -14.4768171
O    14.6598387      -22.1997948      -11.5426149
H    14.8257418      -22.3529682      -12.4787531
H    14.1990118      -21.3544197      -11.5247259
O    13.0641546      -19.7905865      -12.1317034
H    12.5588303      -20.3368683      -12.7522850
H    12.4251280      -19.3508472      -11.5757055
O    14.6139193      -22.2597771      -14.4908028
H    13.6612635      -22.0933399      -14.4304428
H    14.7215195      -23.0096130      -15.0713434
