18
Ord_Energy   -45.1675949
O    23.3806477       2.07733631       28.3732300
H    22.8478718       1.60504973       29.0078545
H    22.8610859       2.85885286       28.1225357
O    25.2383633       1.32386708       26.4975700
H    26.0845852       1.55884314       26.8695221
H    24.5783844       1.57493353       27.1646194
O    20.8900013       4.11938572       25.0861015
H    21.5499821       3.86831927       24.4190540
H    20.0437794       3.88440967       24.7141514
O    22.7477169       3.36591649       23.2104435
H    23.2672806       2.58439994       23.4611359
H    23.2804928       3.83820319       22.5758190
O    21.8837147       4.25922441       27.6414700
H    21.5182533       4.20395994       26.7431679
H    21.9188633       5.18928766       27.8497963
O    24.2446499       1.18402863       23.9422035
H    24.2095013      0.253965020       23.7338772
H    24.6101112       1.23929274       24.8405056
