18
Ord_Energy   -42.8902969
O    23.6084366       5.69043350       26.8398209
H    24.3117695       6.30253935       26.5899029
H    24.0690670       4.84393835       26.9032707
O    24.2842579       2.53309155       24.3270855
H    24.3487377       2.14648199       23.4581718
H    23.5182209       3.13149261       24.2996693
O    26.1497993       6.42791653       25.9382877
H    27.0448608       6.70559549       26.1183739
H    26.1447754       5.46497488       26.0503254
O    20.9068203       4.85084248       26.8794308
H    20.2982903       5.51094484       27.2036533
H    21.7918911       5.23046589       27.0002098
O    25.6203556       3.64971018       26.4232159
H    25.2098999       3.20241404       25.6631031
H    25.9332123       2.96108174       27.0038738
O    22.3328552       4.45035458       24.4871387
H    22.9032745       5.10906363       24.8982925
H    21.6050301       4.37672281       25.1189690
