18
Ord_Energy   -43.2041435
O    24.9324608       4.03491640       24.5173893
H    25.6108608       3.67245102       23.9232864
H    24.4167442       3.29101658       24.8167057
O    25.7070103       7.54936361       27.7170601
H    25.3426971       8.14798069       27.0452919
H    26.1996307       8.10431862       28.3176098
O    24.9446335       8.76811981       25.3074894
H    24.1267719       8.77776337       24.8148842
H    25.3950005       7.94739866       25.0511932
O    26.2887669       6.30319977       25.2765141
H    26.2056198       6.51207113       26.2160950
H    25.7323914       5.53177309       25.0893555
O    27.0613327       3.27384686       22.9299660
H    27.6717281       2.57845712       22.6998653
H    27.6055050       4.06160450       23.0969982
O    28.3791733       5.60643053       23.6106396
H    28.7933693       6.38207769       23.2414265
H    27.7122078       5.93227148       24.2376823
