18
Ord_Energy   -42.6835556
O    23.2387943       5.91448259       24.4889030
H    23.9966755       5.51889610       24.0339832
H    22.5660172       6.03125095       23.8210125
O    25.4873085       4.45951223       23.5061321
H    26.1757812       4.60786963       22.8640099
H    25.9115658       4.48149586       24.3839836
O    23.9703732       2.20373774       24.4872856
H    24.4686337       2.87908888       24.0057583
H    24.4966030       1.40802586       24.4356346
O    23.4341297       4.03334188       26.5672340
H    23.2550354       4.76365089       25.9556694
H    23.4057388       3.24175692       26.0146980
O    25.0466404       5.72125101       28.2499943
H    24.3894329       5.13476419       27.8456764
H    24.6080036       6.56459570       28.3421268
O    26.2609425       4.33877897       26.0924873
H    25.3946228       3.92752838       26.2181473
H    26.2749844       4.99156523       26.8020973
