18
Ord_Energy   -43.1474075
O    21.4767780       8.35232067       15.9226151
H    21.8972664       8.67773438       16.7147789
H    20.5294609       8.53124809       16.0348682
O    17.0410175       10.3744898       15.2691212
H    17.6697769       9.64193726       15.3795910
H    16.9332523       10.4881592       14.3284578
O    15.7169514       9.99827957       17.6627178
H    16.1049862       10.2120161       16.7975864
H    15.5592165       10.8353605       18.0918903
O    17.1534023       7.67805576       18.0980511
H    16.5926113       6.99222183       18.4512577
H    16.5977039       8.47349262       18.0414276
O    18.6708641       8.22536850       15.8610334
H    18.9605198       7.44051266       15.3772774
H    18.2049732       7.93358850       16.6587448
O    20.1931648       6.23722410       14.6181307
H    20.8561993       6.84606171       14.9825220
H    20.5516033       5.36108637       14.7373419
