18
Ord_Energy   -44.6163902
O    23.7087955       1.48097336       28.0736675
H    23.0251522       2.16446829       27.9989986
H    24.5277977       1.95502222       28.2036343
O    22.3056126       1.20213592       25.6359062
H    22.9375744      0.979818583       26.3319798
H    21.7877140       1.91141331       26.0339317
O    22.6150875       5.44987249       26.0637646
H    23.1792164       5.16074800       25.3270149
H    22.4494438       6.37715244       25.9160328
O    24.1749897       4.58811998       23.9828758
H    25.0741215       4.69211054       23.6828537
H    23.8950958       3.70801187       23.6800842
O    21.6127815       3.33642793       27.4650822
H    20.8232689       3.61538744       27.9207249
H    21.9540310       4.11564159       26.9939079
O    23.3645458       2.07243872       23.2650719
H    23.0230484       1.53865051       22.5530205
H    22.9886131       1.70144403       24.0812912
