18
Ord_Energy   -43.1984177
O    24.0705414       4.31623554       24.3295288
H    23.2861137       3.78195786       24.4322815
H    24.7074051       3.97568178       24.9780502
O    24.0832500       8.51756763       27.3622398
H    24.3559437       7.77439404       26.7991257
H    24.0088902       8.16499233       28.2452450
O    26.4396591       8.57085991       24.2899342
H    26.0941582       9.33300972       24.7838116
H    27.1930389       8.89081287       23.8015747
O    25.2793140       10.5172596       25.8751202
H    24.6756344       11.2462721       25.7561893
H    24.8295822       9.89580917       26.4719238
O    25.0526867       6.60262442       25.6157780
H    24.5797272       6.00166082       25.0249310
H    25.5780888       7.20839882       25.0718460
O    25.9808559       4.07135439       26.3716850
H    26.9306717       3.97516656       26.3666515
H    25.8123779       5.02342463       26.2827606
