18
Ord_Energy   -43.2974968
O    23.6377659       4.48819208       22.2851715
H    23.2596798       4.32562351       23.1565647
H    23.7062664       5.44967937       22.2314606
O    24.3847313       7.34388399       22.7768574
H    24.1454258       7.49417734       23.7080212
H    24.3511982       8.19324684       22.3457718
O    23.6160336       4.53535128       25.2333164
H    23.7757511       3.88169885       25.9113274
H    24.4814529       4.73645544       24.8474922
O    25.9954567       5.21248531       23.6543617
H    25.6544151       6.07099962       23.3582401
H    25.5292282       4.59344816       23.0798702
O    26.6323910       6.58475971       26.0153980
H    26.6267929       6.02485704       25.2242565
H    27.5488510       6.79167175       26.1828823
O    23.9705811       7.37809944       25.4816742
H    23.5720367       6.50398731       25.5728588
H    24.8733921       7.27638435       25.8163490
