18
Ord_Energy   -42.8292542
O    15.6636000       10.0139275       15.1440973
H    15.1821718       10.8143930       15.3432360
H    16.3780842       10.2788944       14.5457563
O    19.5234528       10.9296207       16.5836716
H    19.2610760       11.2753086       15.7268429
H    20.3378048       10.4278440       16.4192295
O    21.6202602       9.20538425       15.9506512
H    22.4832954       8.96747017       16.2802639
H    21.1262951       8.37320614       15.8693714
O    18.2090912       10.3104525       13.9276104
H    18.7672234       10.0149326       13.2113113
H    18.3131676       9.65102386       14.6296635
O    17.8613834       8.73459816       16.3520508
H    16.9730625       9.03930378       16.1284599
H    18.3573589       9.50381088       16.6742401
O    19.9216175       7.02441740       15.7679796
H    19.1148643       7.50479698       16.0196800
H    19.7257919       6.09929037       15.8891563
