18
Ord_Energy   -42.3824692
O    21.3726692       6.77205658       25.4202652
H    20.4403725       6.58191538       25.5929184
H    21.8881035       5.97678471       25.6120281
O    24.6436653       7.28728390       26.9986191
H    23.8551617       7.82319975       27.1657562
H    25.2301788       7.84489822       26.4913120
O    19.4154301       9.42318344       27.0692139
H    19.3801250       10.2386417       26.5729542
H    20.3558483       9.24775124       27.2164650
O    22.0493469       8.38978291       27.4648590
H    21.8175812       7.84298372       26.6888657
H    21.8504143       7.85807562       28.2351875
O    23.2948799       4.91929865       26.2737274
H    23.8748245       4.17469454       26.1360455
H    23.8676300       5.65880060       26.5310040
O    18.6903019       6.83626032       26.2195644
H    18.8126678       7.75022984       26.5207386
H    17.8423195       6.56065798       26.5577278
