          18
 Ord_Energy   -46.5315552    
 O    25.9126797       4.29365396       27.7117825    
 H    26.4442463       4.54399681       26.9467773    
 H    25.2130337       3.73617911       27.3463573    
 O    26.7991600       5.09467983       25.0134773    
 H    25.8775806       5.41156626       25.0174980    
 H    27.3406525       5.83476639       24.7541962    
 O    24.4542828       6.66862679       27.8622341    
 H    24.1615925       6.91166258       28.7364750    
 H    24.9915466       5.86728811       27.9734116    
 O    24.1495838       5.72118950       25.2537212    
 H    24.1281662       6.19553995       26.0985832    
 H    23.8597832       4.82338667       25.4574318    
 O    26.1187897       2.45435238       24.4402142    
 H    26.8724747       1.88090622       24.3252258    
 H    26.4757614       3.35144091       24.5405731    
 O    23.9541073       2.93191457       26.0668354    
 H    24.6537933       2.63791275       25.4587955    
 H    23.2909279       2.24694753       26.0709209    
          18
 Ord_Energy   -46.5096512    
 O    24.6339531       4.45806742       27.7533035    
 H    25.4193115       4.11067486       27.3127975    
 H    24.0012341       3.72395492       27.7653198    
 O    26.3893108       6.08044815       24.7378979    
 H    25.4490433       6.16351891       24.9645176    
 H    26.7250576       6.97059441       24.6702404    
 O    22.8794060       2.35792565       27.2086716    
 H    23.1781330       2.49297833       26.2943668    
 H    22.5647755       1.45895851       27.2517624    
 O    23.7528801       5.92565346       25.6182766    
 H    22.9349022       6.38421583       25.7880630    
 H    24.0045300       5.48450422       26.4500103    
 O    26.6354370       3.57075620       25.8297329    
 H    26.6889572       4.44669056       25.4105606    
 H    27.5057583       3.18611312       25.7699528    
 O    23.9846840       3.10819840       24.7609634    
 H    23.7500973       4.04238701       24.8086052    
 H    24.9164047       3.08141541       25.0158005    
          18
 Ord_Energy   -46.1083717    
 O    24.3318863       4.60183859       27.4693737    
 H    24.7691822       5.29015589       27.9643154    
 H    24.2588673       4.92404747       26.5560455    
 O    21.8205204       3.80485296       26.2858715    
 H    22.2293625       4.24318218       25.5304947    
 H    22.4209671       4.01227999       27.0125484    
 O    25.0425053       1.98453200       26.4188347    
 H    24.9053020       2.77643657       26.9515839    
 H    24.1831055       1.53838289       26.3847637    
 O    23.8862228       5.18918896       24.7435455    
 H    24.4036217       4.45709419       24.3628922    
 H    23.9272251       5.90698147       24.1180935    
 O    25.3430595       3.05422759       23.9233189    
 H    25.3199921       2.58992887       24.7785549    
 H    25.5125523       2.38677049       23.2647038    
 O    22.4066238       1.07898700       26.2296200    
 H    22.0720215       1.98974693       26.2041893    
 H    21.7041168      0.552653670       26.6025829    
          18
 Ord_Energy   -46.0908012    
 O    23.2882290       2.44411612       27.4812222    
 H    22.6769276       3.20027351       27.5180683    
 H    23.8134308       2.47879982       28.2766724    
 O    22.3894749      0.341884196       25.8526688    
 H    22.6790314       1.03089714       26.4703579    
 H    21.4840450      0.148232445       26.0849781    
 O    22.7057991       5.73383665       25.1534100    
 H    23.2884445       4.97822857       24.9605427    
 H    23.0854874       6.48121214       24.7003670    
 O    24.2572289       3.49764276       24.9269600    
 H    24.0741844       2.77909112       24.3055611    
 H    24.1113682       3.12156701       25.8020535    
 O    21.6665440       4.63330841       27.4308720    
 H    20.7888908       4.96159983       27.6051884    
 H    21.9773293       5.10275936       26.6374111    
 O    23.5767231       1.20120740       23.4813309    
 H    24.0600204      0.483210921       23.0795517    
 H    23.1270065      0.818031967       24.2516861    
          18
 Ord_Energy   -46.0658035    
 O    22.7376976       2.09290957       27.0957775    
 H    23.4834194       2.60238504       26.7597294    
 H    22.0767498       2.74917865       27.3581562    
 O    22.2665195      0.496562690       24.9259357    
 H    21.4276562       4.80075404E-02   24.9802246    
 H    22.3629665      0.988529921       25.7602444    
 O    22.7031517       5.65586090       25.8580666    
 H    22.5250244       5.99723005       24.9843712    
 H    23.4325294       5.02620077       25.7503796    
 O    24.6911869       3.68836546       25.6122494    
 H    24.5329418       3.11565852       24.8414478    
 H    25.6280117       3.65913272       25.7883415    
 O    21.0551205       4.26475382       27.6224918    
 H    21.5608845       4.83014345       27.0164967    
 H    20.8632450       4.80714655       28.3837643    
 O    24.1157475       1.98368192       23.5689716    
 H    23.4410858       1.40566576       23.9656868    
 H    24.3456440       1.58828318       22.7330284    
          18
 Ord_Energy   -46.0059509    
 O    24.4287109       2.45863390       27.9995155    
 H    24.8032398       2.91834927       27.2275238    
 H    25.0145378       2.64672399       28.7274017    
 O    25.1637154       3.81513929       25.7450829    
 H    25.5066490       3.33399391       24.9786892    
 H    24.3041763       4.15334892       25.4712639    
 O    23.1140404       2.94925261       22.6747360    
 H    22.7862606       3.42904544       23.4509048    
 H    22.6318111       3.29676962       21.9282398    
 O    22.3700771       4.31989431       25.0072021    
 H    21.9585552       5.15490341       25.2147865    
 H    22.1240864       3.70625687       25.7213306    
 O    25.7491798       2.41018820       23.3959332    
 H    24.8505535       2.54367304       23.0533905    
 H    25.9617004       1.49730396       23.2167549    
 O    21.8555546       2.61548090       27.0730381    
 H    22.7315865       2.51218104       27.4827538    
 H    21.4007092       1.78896439       27.2119961    
          18
 Ord_Energy   -45.9915009    
 O    21.6553078       2.90054965       26.7751560    
 H    21.7161541       2.72154403       25.8278065    
 H    22.2690964       3.62820888       26.9289036    
 O    23.6772842      0.988873839       26.3551846    
 H    22.9454994       1.43663502       26.8035393    
 H    23.4917469       1.15518832       25.4234562    
 O    23.8881016       4.81793690       26.9710064    
 H    23.9499397       5.45693779       27.6758327    
 H    24.5269489       4.11119604       27.1729794    
 O    22.5103035       2.25708175       24.0298920    
 H    22.0271034       2.17630720       23.2117748    
 H    22.9954395       3.09759784       23.9810009    
 O    23.8689919       4.64848661       24.1815376    
 H    23.8805962       4.80366468       25.1388969    
 H    24.6893845       5.00536203       23.8491936    
 O    25.5456276       2.70206451       27.3887577    
 H    26.2297401       2.24932265       27.8735809    
 H    24.9736252       2.00849080       27.0170040    
          18
 Ord_Energy   -45.9105644    
 O    22.4830647       4.56617403       27.3215256    
 H    21.9690342       5.27411509       27.7020779    
 H    22.2518349       4.53282452       26.3790112    
 O    22.2335224       1.83717704       26.4369488    
 H    21.9631443       2.30131459       25.6353703    
 H    22.2731285       2.54148006       27.0956898    
 O    25.3122101       4.14879131       26.8322582    
 H    24.4247265       4.35525894       27.1507988    
 H    25.3255520       3.19019818       26.7155895    
 O    22.0076046       4.06947517       24.5816498    
 H    22.9395523       3.94642115       24.3267918    
 H    21.5491943       4.37285805       23.8034077    
 O    24.6627159       3.62715006       24.1638489    
 H    24.8191051       2.70567250       24.4024124    
 H    25.0031281       4.10778141       24.9328918    
 O    24.9164734       1.35489881       25.9354877    
 H    23.9680786       1.39239895       26.1421986    
 H    25.2030773      0.469612837       26.1432724    
          18
 Ord_Energy   -45.7945213    
 O    22.7486687       1.36122775       26.6739559    
 H    22.5519562      0.836413443       27.4442997    
 H    23.2687969       2.11984491       26.9916592    
 O    24.2458801       3.53892374       27.3409119    
 H    23.7930927       4.33698750       27.0376930    
 H    25.0268154       3.46293044       26.7762241    
 O    23.9284477       4.18676901       23.6349239    
 H    23.9095364       4.41177416       22.7085857    
 H    23.3682518       3.39733958       23.7436180    
 O    23.1420193       5.72248745       25.9158077    
 H    23.5393085       6.58975887       25.8635445    
 H    23.3733044       5.27803230       25.0873222    
 O    26.1450672       3.37661839       25.2436905    
 H    25.4548035       3.66298318       24.6279716    
 H    26.4632816       2.54275322       24.9024544    
 O    22.4139977       1.97268653       24.0379772    
 H    21.5916862       1.59226108       23.7414265    
 H    22.5109043       1.70672452       24.9687805    
          18
 Ord_Energy   -45.7182083    
 O    27.9192963       5.88851023       26.6528797    
 H    28.2739029       6.68109894       27.0448322    
 H    27.0330753       6.12423658       26.3269367    
 O    25.7850342       2.69712448       24.7594376    
 H    26.6470814       2.84535885       25.1878185    
 H    25.7640972       1.78536797       24.4812374    
 O    24.1049633       4.04285622       26.6423187    
 H    24.6127472       3.50915217       26.0140972    
 H    24.2399673       3.63429832       27.4951954    
 O    28.1421146       3.25811243       25.9766521    
 H    28.1103649       4.19472075       26.2386723    
 H    28.9919052       2.93304825       26.2599945    
 O    25.4196167       6.35304213       25.6744385    
 H    24.8472614       5.69865036       26.0971069    
 H    25.4517021       6.09808588       24.7425404    
 O    25.6564236       5.06811285       23.1654663    
 H    25.6802368       4.21458435       23.6218338    
 H    26.4250660       5.07828474       22.5983448    
          18
 Ord_Energy   -45.6464653    
 O    22.7620087       1.38598228       26.6374340    
 H    22.1198902       2.10404038       26.7225208    
 H    22.7641106       1.14451981       25.7001095    
 O    25.1059685       2.65587926       27.0361748    
 H    24.2908001       2.12385654       26.9657135    
 H    25.6515331       2.23740268       27.6949425    
 O    23.7995377       5.01888037       26.2781868    
 H    24.2016048       5.81158018       26.6254997    
 H    24.3063202       4.27338457       26.6408329    
 O    23.0235004       1.09732258       23.8629742    
 H    23.6628094       1.82696784       23.8412933    
 H    23.2626801      0.519177914       23.1428967    
 O    21.2705517       3.78363109       26.6414394    
 H    20.6588840       4.02824783       25.9496155    
 H    22.0653229       4.31625700       26.4903660    
 O    24.8630276       3.17643523       24.2134113    
 H    25.2157898       2.83149576       25.0441628    
 H    24.4178066       3.98676562       24.4814034    
          18
 Ord_Energy   -45.6437302    
 O    26.1396866       5.39363194       24.0252628    
 H    26.6878681       4.78060055       23.5417767    
 H    25.7817917       4.90305471       24.7836170    
 O    24.0525990       6.94758034       26.4848156    
 H    24.1880512       5.99687099       26.5589294    
 H    23.8269138       7.09813929       25.5555706    
 O    23.9074173       7.10158730       23.6656952    
 H    24.6901989       6.53100586       23.6443329    
 H    24.1023502       7.83274937       23.0830288    
 O    26.8301697       7.23143482       26.2377701    
 H    26.8518028       6.80215883       25.3761921    
 H    25.8853722       7.34421968       26.4252243    
 O    27.1563339       5.09549809       27.9263363    
 H    27.1710587       5.92115974       27.4114571    
 H    27.4717388       5.32053614       28.7972069    
 O    25.1428070       4.17137480       26.3401775    
 H    24.7328091       3.37128949       26.6570148    
 H    25.8465843       4.39893818       26.9734268    
          18
 Ord_Energy   -45.5965805    
 O    24.4798527       2.52878857       24.2744637    
 H    25.1963482       3.09108043       24.5868721    
 H    23.8886509       2.43878841       25.0327492    
 O    21.3297825       4.75674248       25.4139252    
 H    20.4226036       4.49596262       25.2703609    
 H    21.7483692       4.01556969       25.8764858    
 O    23.5161247       5.13327837       23.6809216    
 H    23.7035198       4.18906116       23.5860043    
 H    22.7056465       5.17437935       24.2066383    
 O    25.7958031       5.10793924       25.1712780    
 H    24.9960117       5.26613855       24.6383057    
 H    26.5167217       5.52710772       24.7098236    
 O    22.8256893       2.70088315       26.6706581    
 H    22.6881428       1.95996511       27.2552128    
 H    23.5028553       3.26259875       27.0870857    
 O    24.7748623       4.35920382       27.6244049    
 H    25.2050037       4.66917896       26.8106594    
 H    24.7936058       5.09687662       28.2293587    
          18
 Ord_Energy   -45.5756760    
 O    23.3440819       2.32365704       24.6006241    
 H    23.0746250       1.41950357       24.4591293    
 H    23.3592129       2.45552206       25.5625629    
 O    25.0198231       4.93725634       27.6775589    
 H    24.7924252       5.44688892       26.8797283    
 H    25.8094482       5.33546257       28.0313263    
 O    21.7151070       4.66180563       25.5342712    
 H    21.9652328       4.02697706       24.8552837    
 H    21.9901962       4.23052216       26.3521404    
 O    25.0275803       4.26021719       23.4365749    
 H    24.4962749       3.52474999       23.7773705    
 H    25.0583000       4.14569569       22.4895992    
 O    23.2501411       2.91935658       27.3378792    
 H    23.0316277       2.52747965       28.1786995    
 H    23.9230976       3.60076118       27.5159130    
 O    24.1794872       6.11287689       25.3705750    
 H    24.5740318       5.60240936       24.6494694    
 H    23.2503681       5.84918261       25.3895149    
          18
 Ord_Energy   -45.5610428    
 O    25.6620083       3.04551196       24.9360046    
 H    25.8322029       3.41202021       25.8089066    
 H    24.9255829       3.57704687       24.6098347    
 O    23.2442741       4.70034313       24.8919315    
 H    22.6492405       3.92908049       24.8898277    
 H    22.9001656       5.31156826       24.2467480    
 O    24.1816177       2.14533257       28.4838505    
 H    23.7253284       2.23171663       29.3174610    
 H    24.3390388       3.04960442       28.1719437    
 O    21.7741547       2.42836881       24.9229145    
 H    21.0600376       1.86492395       24.6404743    
 H    22.4607868       1.83781254       25.2809086    
 O    23.8817215       1.03187966       25.9234276    
 H    23.9588699       1.25288796       26.8622856    
 H    24.5999069       1.51085746       25.4899139    
 O    24.6627674       4.65475988       27.3132820    
 H    24.1218872       4.73830318       26.5118008    
 H    24.9676971       5.53370142       27.5247440    
          18
 Ord_Energy   -45.5437164    
 O    25.2454643       2.78181338       24.2099838    
 H    25.9791088       2.88056993       24.8172321    
 H    24.7036610       3.57109046       24.3444424    
 O    23.5250473       4.98869991       24.9584656    
 H    23.2572937       5.68406296       24.3640079    
 H    22.7426300       4.42561102       25.1014977    
 O    24.6574287       1.99013710       28.0571880    
 H    24.8377762       2.91951394       27.8450890    
 H    24.5660248       1.95094156       29.0060005    
 O    21.4959297       3.25070667       25.3623524    
 H    22.0595531       2.46870995       25.5031586    
 H    20.6016922       2.92799807       25.3062115    
 O    23.3284874       1.27637196       25.6980858    
 H    23.9908066       1.58298302       25.0652199    
 H    23.7400913       1.38558626       26.5672417    
 O    25.1073399       4.62463760       27.2482567    
 H    25.4693890       5.45944071       27.5353966    
 H    24.5396748       4.82643414       26.4892197    
          18
 Ord_Energy   -45.4308395    
 O    17.5833702       3.50295043       28.9064178    
 H    18.3394127       2.94079161       29.0547504    
 H    17.6135216       3.74805903       27.9682293    
 O    17.3739567       4.53058004       26.3061295    
 H    17.8581066       5.35370541       26.1907139    
 H    16.4630737       4.82426453       26.4392033    
 O    15.1427279       6.19710922       27.0542374    
 H    14.1908922       6.17928553       27.0737324    
 H    15.4457054       6.08940411       27.9758759    
 O    18.2615108       7.79956913       28.9798336    
 H    18.5413570       8.68703938       29.1917191    
 H    18.1040192       7.79125595       28.0237923    
 O    16.2521439       5.89377594       29.4922619    
 H    16.9560223       6.55705881       29.4926929    
 H    16.6950359       5.03376389       29.4561615    
 O    17.4780293       7.52893686       26.2811718    
 H    17.3931122       7.99538660       25.4532509    
 H    16.6005440       7.16171169       26.4796638    
          18
 Ord_Energy   -45.2845001    
 O    28.4409370       4.69531393       25.6235085    
 H    27.8447075       5.19176626       26.2117462    
 H    29.3198185       5.02840185       25.7829075    
 O    24.6203651       3.45620704       24.3773556    
 H    24.2240906       2.91263580       23.7016315    
 H    25.4174500       2.98773146       24.6841965    
 O    24.5809822       3.83997369       27.1904964    
 H    23.7601280       3.65119863       27.6393566    
 H    24.3925495       3.77943468       26.2413101    
 O    26.7695122       2.43960190       25.7206287    
 H    26.2882633       2.65115952       26.5276165    
 H    27.4680920       3.10719204       25.6559792    
 O    26.4216290       6.02951813       26.9205055    
 H    26.1779957       6.24692678       26.0086231    
 H    25.7775459       5.36816883       27.2018700    
 O    26.1754971       5.89135885       24.1091976    
 H    27.0422020       5.49939680       24.2668457    
 H    25.5670280       5.14343739       24.0623569    
          18
 Ord_Energy   -45.2498665    
 O    17.1909256       6.58705616       24.7293262    
 H    17.6533089       6.55564833       25.5810318    
 H    16.2925415       6.31389666       24.9001484    
 O    19.8929291       5.41076469       24.4296532    
 H    18.9930878       5.57726240       24.1288815    
 H    20.4276447       6.12980175       24.0623493    
 O    21.1886940       7.78112602       23.6532745    
 H    22.0040245       8.16327381       23.3400097    
 H    20.9977283       8.19940472       24.5110645    
 O    19.0442600       6.34363174       26.8601685    
 H    19.2245712       5.80958223       27.6291389    
 H    19.4913311       5.91441154       26.1086750    
 O    20.1583996       8.87484264       25.9627361    
 H    19.4562340       9.13313675       25.3469963    
 H    19.8049641       8.12537193       26.4556961    
 O    18.4539909       8.95596790       23.7176075    
 H    19.2613964       8.58810520       23.3413258    
 H    17.9112225       8.19244480       23.9545803    
          18
 Ord_Energy   -45.2255936    
 O    24.0381851       6.51480818       25.0299778    
 H    24.3632336       7.38964844       24.7786961    
 H    24.1186867       6.47158957       25.9933014    
 O    25.5241222       8.82128716       24.3131886    
 H    25.5894108       9.31843472       23.5003262    
 H    26.3422108       8.30809116       24.3742847    
 O    25.9919586       5.01083326       23.9015560    
 H    25.7343369       4.10326767       23.7714100    
 H    25.2135696       5.46354437       24.2744312    
 O    27.7223244       6.98275232       24.5457306    
 H    28.5074043       6.94417715       24.0063534    
 H    27.1613579       6.23037767       24.2807159    
 O    27.3744888       6.78914499       27.3545265    
 H    27.5454044       6.88679504       26.4067993    
 H    28.1005993       6.27305698       27.6982822    
 O    24.6220455       6.52618313       27.7698593    
 H    24.3569469       7.17387533       28.4191170    
 H    25.5835743       6.62227774       27.6823616    
          18
 Ord_Energy   -45.2231941    
 O    16.5788174       6.80571175       26.9909496    
 H    17.2633724       7.49755335       26.9744530    
 H    15.7620325       7.23564529       27.2301693    
 O    18.3465576       4.76714468       27.8336449    
 H    17.9069138       4.09308815       28.3475151    
 H    17.6679764       5.42535019       27.6227779    
 O    18.6439457       8.59309673       26.8172817    
 H    19.0683422       8.32799053       25.9852390    
 H    19.3534260       8.79640484       27.4224606    
 O    19.6236629       7.57887840       24.4348717    
 H    19.9786930       7.82342720       23.5844288    
 H    18.8077545       7.07804394       24.2580280    
 O    19.6449318       4.62878895       25.3408718    
 H    20.0460091       5.49462032       25.2263546    
 H    19.3108540       4.61232805       26.2503166    
 O    17.4052238       5.96481514       24.3182392    
 H    16.9381313       6.18718863       25.1317310    
 H    18.0429192       5.27802324       24.5668907    
          18
 Ord_Energy   -45.1675949    
 O    23.3806477       2.07733631       28.3732300    
 H    22.8478718       1.60504973       29.0078545    
 H    22.8610859       2.85885286       28.1225357    
 O    25.2383633       1.32386708       26.4975700    
 H    26.0845852       1.55884314       26.8695221    
 H    24.5783844       1.57493353       27.1646194    
 O    20.8900013       4.11938572       25.0861015    
 H    21.5499821       3.86831927       24.4190540    
 H    20.0437794       3.88440967       24.7141514    
 O    22.7477169       3.36591649       23.2104435    
 H    23.2672806       2.58439994       23.4611359    
 H    23.2804928       3.83820319       22.5758190    
 O    21.8837147       4.25922441       27.6414700    
 H    21.5182533       4.20395994       26.7431679    
 H    21.9188633       5.18928766       27.8497963    
 O    24.2446499       1.18402863       23.9422035    
 H    24.2095013      0.253965020       23.7338772    
 H    24.6101112       1.23929274       24.8405056    
          18
 Ord_Energy   -45.0561256    
 O    23.2367268       5.64262342       23.2591114    
 H    22.8817940       5.27183104       22.4535313    
 H    24.1559067       5.34116697       23.3051701    
 O    25.8533764       4.68560219       23.8329792    
 H    25.5369205       3.89784288       24.3144627    
 H    26.6281757       4.42001486       23.3458786    
 O    24.8644199       2.73868275       25.4204807    
 H    25.4132671       2.79475141       26.2145386    
 H    24.0628834       3.24264216       25.6262779    
 O    25.6614628       6.01220942       26.3353386    
 H    25.7877178       6.95619345       26.2742691    
 H    25.7822609       5.66100550       25.4392338    
 O    22.9854088       4.76356173       25.9441795    
 H    22.8572311       5.10171080       25.0466976    
 H    23.7171860       5.28042030       26.2979317    
 O    26.3677788       3.59188128       27.6564312    
 H    26.1843338       4.48843718       27.3387775    
 H    26.1432514       3.59457564       28.5848179    
          18
 Ord_Energy   -44.8823509    
 O    23.2086487       1.65132594       27.8870163    
 H    22.3805714       2.12536860       27.7044373    
 H    23.5391502       2.01729894       28.7034397    
 O    24.3842735      0.668671072       25.6080036    
 H    23.9723034       1.00860643       26.4194832    
 H    24.8008690     -0.153391406       25.8520031    
 O    21.3515053       5.22674417       25.7490788    
 H    22.1435776       5.13175774       25.1946659    
 H    20.9902878       6.08449364       25.5425320    
 O    23.5939903       4.93160534       24.1915951    
 H    24.4580307       5.33543062       24.1830521    
 H    23.7320747       4.01291084       23.9075241    
 O    20.9046459       3.04550266       27.3551044    
 H    20.0083561       2.77033138       27.1800461    
 H    21.0534344       3.83143735       26.8038177    
 O    24.0126877       2.32248282       23.4484558    
 H    23.6359272       1.77726197       22.7625370    
 H    24.1655273       1.73092592       24.2037373    
          18
 Ord_Energy   -44.8303146    
 O    25.6768417       6.82043839       27.1469250    
 H    24.8307667       7.27423286       27.0329189    
 H    25.5237999       5.91326475       26.8467922    
 O    26.8772068       7.16800737       24.7273865    
 H    27.8230114       7.27003527       24.7856064    
 H    26.5449162       7.13626385       25.6428375    
 O    25.3730240       4.58792734       25.4266357    
 H    26.0087318       5.11883545       24.9375496    
 H    24.5140171       4.81660557       25.0465946    
 O    23.0103512       5.72169685       24.2626209    
 H    23.4849319       6.47030497       23.8659706    
 H    22.3374310       5.46329021       23.6375275    
 O    23.2469254       7.92194986       26.1700897    
 H    22.8975334       7.09024525       25.8284416    
 H    23.6327000       8.33643246       25.3911209    
 O    24.5493736       7.93720341       23.4784412    
 H    24.7101440       8.56867886       22.7823772    
 H    25.4176865       7.70499897       23.8490391    
          18
 Ord_Energy   -44.7779961    
 O    23.9363976       2.90609050       27.3465900    
 H    23.5385342       3.77560234       27.4762707    
 H    24.8418579       3.02716351       27.6484203    
 O    23.7180653       5.80806398       27.6283436    
 H    23.8321629       5.96007729       26.6728992    
 H    23.0602036       6.42840719       27.9286041    
 O    24.4273567       3.25161004       24.5484676    
 H    25.3372517       3.55828929       24.6427250    
 H    24.1727257       2.94977379       25.4309311    
 O    24.2626553       5.99475670       24.9719219    
 H    24.0260220       5.09967947       24.6842804    
 H    25.2254772       5.98413420       24.9354477    
 O    26.2570724       4.69449663       27.9986038    
 H    26.6165142       4.85278940       28.8680401    
 H    25.3966961       5.14498997       27.9706535    
 O    26.8954868       4.75661421       25.2645226    
 H    26.7884617       4.70717573       26.2271442    
 H    27.8330193       4.70687294       25.0949516    
          18
 Ord_Energy   -44.6715431    
 O    26.0619183       3.91991425       25.8486557    
 H    26.0081787       2.96911573       25.8243752    
 H    25.1473656       4.24630642       25.7803688    
 O    24.0257015       7.40294790       24.1762619    
 H    24.1374550       7.70889091       25.0842152    
 H    24.9191971       7.39646673       23.8073025    
 O    27.1987839       6.33935404       26.2708740    
 H    28.0294762       6.25996065       26.7323418    
 H    26.8605957       5.43471336       26.1405125    
 O    26.7938213       7.20746231       23.5701637    
 H    27.0197639       6.93270159       24.4698696    
 H    27.1838417       6.55135918       22.9953213    
 O    24.7445984       7.57373095       27.0415535    
 H    25.6249180       7.22375631       26.8379459    
 H    24.8759480       8.27773666       27.6722050    
 O    23.6322136       5.15471268       25.7683449    
 H    23.7248306       5.75947237       26.5119476    
 H    23.6404953       5.74721146       25.0013676    
          18
 Ord_Energy   -44.6163902    
 O    23.7087955       1.48097336       28.0736675    
 H    23.0251522       2.16446829       27.9989986    
 H    24.5277977       1.95502222       28.2036343    
 O    22.3056126       1.20213592       25.6359062    
 H    22.9375744      0.979818583       26.3319798    
 H    21.7877140       1.91141331       26.0339317    
 O    22.6150875       5.44987249       26.0637646    
 H    23.1792164       5.16074800       25.3270149    
 H    22.4494438       6.37715244       25.9160328    
 O    24.1749897       4.58811998       23.9828758    
 H    25.0741215       4.69211054       23.6828537    
 H    23.8950958       3.70801187       23.6800842    
 O    21.6127815       3.33642793       27.4650822    
 H    20.8232689       3.61538744       27.9207249    
 H    21.9540310       4.11564159       26.9939079    
 O    23.3645458       2.07243872       23.2650719    
 H    23.0230484       1.53865051       22.5530205    
 H    22.9886131       1.70144403       24.0812912    
          18
 Ord_Energy   -44.5732536    
 O    26.3957081       3.18149281       23.8688087    
 H    25.5933342       2.73279619       23.5525417    
 H    27.1164932       2.81901550       23.3616047    
 O    24.0465469       1.99117315       23.1159420    
 H    23.8149090       1.11771679       23.4568615    
 H    23.3078365       2.53770423       23.4078560    
 O    21.7218781       2.78920817       24.6493492    
 H    20.9167061       3.25493526       24.4402790    
 H    22.1501656       3.28413057       25.3686237    
 O    23.0108032       4.15853024       26.6220016    
 H    22.9849224       4.23035717       27.5724697    
 H    23.9070740       4.42723703       26.3593273    
 O    22.6008129       6.44778237E-02   24.5948505    
 H    22.1912632      0.938114047       24.6916046    
 H    22.7787800     -0.232814580       25.4848824    
 O    25.5377579       4.87623882       25.8421192    
 H    25.8907471       4.27567005       25.1644020    
 H    25.9985008       5.70262241       25.7224140    
          18
 Ord_Energy   -44.5309334    