15
Ord_Energy   -33.6685257
O    36.6649590       1.69446146      -1.95305538
H    36.0321503       2.28981519      -1.56088948
H    36.8510857       2.03708911      -2.84738731
O    40.0075417       1.76379406      -4.20895624
H    39.9120140       1.52758956      -3.27245831
H    40.6145439       1.12539494      -4.57622576
O    37.2633743       2.18511176      -4.55581427
H    38.2290764       2.10943794      -4.57550240
H    36.9214211       1.29505622      -4.71094465
O    36.1540833     -0.380903155      -3.93879414
H    35.2803268     -0.766732872      -3.91997576
H    36.2421036      0.102023147      -3.10569906
O    39.4029579       1.14541030      -1.55247033
H    38.4462166       1.29824376      -1.56729114
H    39.6848183       1.32723522     -0.659094572
